 Gaussian 16, Revision C.01,
 Gaussian 16:  ES64L-G16RevC.01  3-Jul-2019

 --------------------
 #p B3LYP/6-31G(d) SP
 --------------------

 ---------------
 Molecule_PENCEN
 ---------------
 Symbolic Z-matrix:
 Charge =  0 Multiplicity = 1

                         Standard orientation:
 ---------------------------------------------------------------------
 Center     Atomic      Atomic             Coordinates (Angstroms)
 Number     Number       Type             X           Y           Z
 ---------------------------------------------------------------------
      1          6           0       -1.324200   -1.053100    5.903600
      2          6           0       -1.951100   -2.388300    4.040100
      3          6           0       -1.950000   -2.147200    5.374300
      4          6           0       -0.738900   -0.175300    5.062500
      5          6           0       -0.702600   -0.351800    3.637000
      6          6           0       -0.085600    0.455800    2.746600
      7          6           0       -0.090400    0.303200    1.377600
      8          6           0        0.617600    1.170400    0.485800
      9          6           0       -0.582600   -0.903600    0.822200
     10          6           0       -1.283500   -1.755300    1.776400
     11          6           0       -1.271000   -1.530500    3.116400
     12          1           0       -1.331100   -0.851900    6.989800
     13          1           0       -2.405300   -3.298100    3.639900
     14          1           0       -2.444100   -2.844400    6.090700
     15          1           0       -0.202600    0.719200    5.365600
     16          1           0        0.397000    1.316900    3.161300
     17          1           0        1.065200    2.013500    0.884600
     18          1           0       -1.742100   -2.667400    1.421200
     19          6           0        0.582600    0.903600   -0.822200
     20          6           0       -0.617600   -1.170400   -0.485800
     21          6           0        0.090400   -0.303200   -1.377600
     22          6           0        1.283500    1.755300   -1.776400
     23          1           0       -1.065200   -2.013500   -0.884600
     24          6           0        0.085600   -0.455800   -2.746600
     25          6           0        1.271000    1.530500   -3.116400
     26          1           0        1.742100    2.667400   -1.421200
     27          6           0        0.702600    0.351800   -3.637000
     28          1           0       -0.397000   -1.316900   -3.161300
     29          6           0        1.951100    2.388300   -4.040100
     30          6           0        0.738900    0.175300   -5.062500
     31          6           0        1.950000    2.147200   -5.374300
     32          1           0        2.405300    3.298100   -3.639900
     33          6           0        1.324200    1.053100   -5.903600
     34          1           0        0.202600   -0.719200   -5.365600
     35          1           0        2.444100    2.844400   -6.090700
     36          1           0        1.331100    0.851900   -6.989800
 ---------------------------------------------------------------------

 SCF Done:  E(RB3LYP) =  -846.741165656     A.U. after   14 cycles

 The electronic state is 1-AG.
 Alpha  occ. eigenvalues --  -10.19436 -10.19436 -10.19249 -10.19248 -10.18823
 Alpha  occ. eigenvalues --  -10.18823 -10.18796 -10.18796 -10.18769 -10.18769
 Alpha  occ. eigenvalues --  -10.18726 -10.18726 -10.18717 -10.18717 -10.18649
 Alpha  occ. eigenvalues --  -10.18649 -10.18622 -10.18622 -10.18354 -10.18354
 Alpha  occ. eigenvalues --  -10.18011 -10.18011  -0.89781  -0.88227  -0.85999
 Alpha  occ. eigenvalues --   -0.82753  -0.79428  -0.79350  -0.77500  -0.75488
 Alpha  occ. eigenvalues --   -0.74612  -0.71830  -0.68663  -0.67500  -0.62546
 Alpha  occ. eigenvalues --   -0.61899  -0.61284  -0.59667  -0.59446  -0.56589
 Alpha  occ. eigenvalues --   -0.52730  -0.51956  -0.51432  -0.49409  -0.48458
 Alpha  occ. eigenvalues --   -0.46769  -0.45628  -0.45094  -0.44287  -0.44114
 Alpha  occ. eigenvalues --   -0.42272  -0.41410  -0.41379  -0.40869  -0.40734
 Alpha  occ. eigenvalues --   -0.40125  -0.39569  -0.39170  -0.37638  -0.36736
 Alpha  occ. eigenvalues --   -0.35420  -0.35196  -0.33190  -0.32858  -0.32389
 Alpha  occ. eigenvalues --   -0.31571  -0.30141  -0.28702  -0.28439  -0.25677
 Alpha  occ. eigenvalues --   -0.24268  -0.21265  -0.16918
 Alpha virt. eigenvalues --   -0.08930  -0.03696  -0.00918   0.01028   0.04313
 Alpha virt. eigenvalues --    0.04442   0.05158   0.09213   0.09257   0.10281
 Alpha virt. eigenvalues --    0.10964   0.12378   0.13253   0.13863   0.15269

 Mulliken charges:
               1
     1  C   -0.128421
     2  C   -0.180565
     3  C   -0.138270
     4  C   -0.172287
     5  C    0.173259
     6  C   -0.297557
     7  C    0.127247
     8  C   -0.232849
     9  C    0.124893
    10  C   -0.275411
    11  C    0.135039
    12  H    0.134374
    13  H    0.124728
    14  H    0.126733
    15  H    0.121237
    16  H    0.113907
    17  H    0.124743
    18  H    0.119200
    19  C    0.124893
    20  C   -0.232849
    21  C    0.127247
    22  C   -0.275411
    23  H    0.124743
    24  C   -0.297557
    25  C    0.135039
    26  H    0.119200
    27  C    0.173259
    28  H    0.113907
    29  C   -0.180565
    30  C   -0.172287
    31  C   -0.138270
    32  H    0.124728
    33  C   -0.128421
    34  H    0.121237
    35  H    0.126733
    36  H    0.134374
 Sum of Mulliken charges =  -0.00000

 Dipole moment (field-independent basis, Debye):
    X=              0.0000    Y=             -0.0000    Z=             -0.0000  Tot=              0.0000
 Quadrupole moment (field-independent basis, Debye-Ang):
   XX=           -126.4409   YY=           -116.3880   ZZ=           -108.2744
   XY=              8.7934   XZ=             -2.0567   YZ=              0.2725

 Normal termination of Gaussian 16 at Fri Apr  4 11:59:31 2025.
